--------------------------------------------------------------------------
[[57002,1],0]: A high-performance Open MPI point-to-point messaging module
was unable to find any relevant network interfaces:

Module: OpenFabrics (openib)
  Host: instance-1

Another transport will be used instead, although this may result in
lower performance.

NOTE: You can disable this warning by setting the MCA parameter
btl_base_warn_component_unused to 0.
--------------------------------------------------------------------------

     Program PWSCF v.6.0 (svn rev. 13079) starts on 31May2021 at 14:42:22 

     This program is part of the open-source Quantum ESPRESSO suite
     for quantum simulation of materials; please cite
         "P. Giannozzi et al., J. Phys.:Condens. Matter 21 395502 (2009);
          URL http://www.quantum-espresso.org", 
     in publications or presentations arising from this work. More details at
     http://www.quantum-espresso.org/quote

     Parallel version (MPI), running on     4 processors
     R & G space division:  proc/nbgrp/npool/nimage =       4
     Reading input from WSe2.band.in

     Current dimensions of program PWSCF are:
     Max number of different atomic species (ntypx) = 10
     Max number of k-points (npk) =  40000
     Max angular momentum in pseudopotentials (lmaxx) =  3
     Message from routine iosys:
     wrong startingpot: use default (2)

     Atomic positions and unit cell read from directory:
     ./out/Si_exc1.save/

               file Sn.pbe-dn-rrkjus_psl.1.0.0.UPF: wavefunction(s)  5S 4D renormalized

     gamma-point specific algorithms are used

     Subspace diagonalization in iterative solution of the eigenvalue problem:
     a serial algorithm will be used

     Found symmetry operation: I + ( -0.0000  0.3333  0.0000)
     This is a supercell, fractional translations are disabled

     Parallelization info
     --------------------
     sticks:   dense  smooth     PW     G-vecs:    dense   smooth      PW
     Min        2390    1065    266               263998    78230    9770
     Max        2392    1068    268               264012    78236    9776
     Sum        9565    4267   1069              1056033   312933   39091



     bravais-lattice index     =            4
     lattice parameter (alat)  =      18.0974  a.u.
     unit-cell volume          =    7170.7032 (a.u.)^3
     number of atoms/cell      =           54
     number of atomic types    =            3
     number of electrons       =       468.00
     number of Kohn-Sham states=          281
     kinetic-energy cutoff     =      47.0743  Ry
     charge density cutoff     =     423.6680  Ry
     Exchange-correlation      =  SLA  PW   PBE  PBE ( 1  4  3  4 0 0)

     celldm(1)=  18.097378  celldm(2)=   0.000000  celldm(3)=   1.396961
     celldm(4)=   0.000000  celldm(5)=   0.000000  celldm(6)=   0.000000

     crystal axes: (cart. coord. in units of alat)
               a(1) = (   1.000000   0.000000   0.000000 )  
               a(2) = (  -0.500000   0.866025   0.000000 )  
               a(3) = (   0.000000   0.000000   1.396961 )  

     reciprocal axes: (cart. coord. in units 2 pi/alat)
               b(1) = (  1.000000  0.577350 -0.000000 )  
               b(2) = (  0.000000  1.154701  0.000000 )  
               b(3) = (  0.000000 -0.000000  0.715840 )  


     PseudoPot. # 1 for Sn read from file:
     ./pseudo/Sn.pbe-dn-rrkjus_psl.1.0.0.UPF
     MD5 check sum: 6923576d35b7bb477f9d834f190d2db6
     Pseudo is Ultrasoft + core correction, Zval = 14.0
     Generated using "atomic" code by A. Dal Corso  v.5.1.2
     Using radial grid of 1243 points,  6 beta functions with: 
                l(1) =   0
                l(2) =   0
                l(3) =   1
                l(4) =   1
                l(5) =   2
                l(6) =   2
     Q(r) pseudized with 0 coefficients 


     PseudoPot. # 2 for Se read from file:
     ./pseudo/Se.pbe-n-rrkjus_psl.1.0.0.UPF
     MD5 check sum: b4fde84b927950421ac83de11f467c93
     Pseudo is Ultrasoft + core correction, Zval =  6.0
     Generated using "atomic" code by A. Dal Corso  v.5.1.2
     Using radial grid of 1211 points,  4 beta functions with: 
                l(1) =   0
                l(2) =   0
                l(3) =   1
                l(4) =   1
     Q(r) pseudized with 0 coefficients 


     PseudoPot. # 3 for W  read from file:
     ./pseudo/W.pbe-nsp-van.UPF
     MD5 check sum: d6466f82beb0ca8b88800d998c44bca0
     Pseudo is Ultrasoft + core correction, Zval = 14.0
     Generated by new atomic code, or converted to UPF format
     Using radial grid of  923 points,  6 beta functions with: 
                l(1) =   0
                l(2) =   0
                l(3) =   1
                l(4) =   1
                l(5) =   2
                l(6) =   2
     Q(r) pseudized with  6 coefficients,  rinner =    1.000   1.000   1.000
                                                       1.000   1.000

     atomic species   valence    mass     pseudopotential
        Sn            14.00   118.71000     Sn( 1.00)
        Se             6.00    78.96000     Se( 1.00)
        W             14.00   183.84000     W ( 1.00)

      6 Sym. Ops. (no inversion) found



   Cartesian axes

     site n.     atom                  positions (alat units)
         1           Sn  tau(   1) = (   0.0000000   0.1924498   1.0477200  )
         2           Sn  tau(   2) = (  -0.1666666   0.4811247   1.0477200  )
         3           Sn  tau(   3) = (  -0.3333331   0.7697998   1.0477200  )
         4           Sn  tau(   4) = (   0.3333331   0.1924498   1.0477200  )
         5           Sn  tau(   5) = (   0.1666666   0.4811247   1.0477200  )
         6           Sn  tau(   6) = (   0.0000000   0.7697998   1.0477200  )
         7           Sn  tau(   7) = (   0.6666664   0.1924498   1.0477200  )
         8           Sn  tau(   8) = (   0.4999998   0.4811247   1.0477200  )
         9           Sn  tau(   9) = (   0.3333331   0.7697998   1.0477200  )
        10           Se  tau(  10) = (   0.1666665   0.0962249   0.8843902  )
        11           Se  tau(  11) = (  -0.0000002   0.3848998   0.8843902  )
        12           Se  tau(  12) = (  -0.1666668   0.6735749   0.8843902  )
        13           Se  tau(  13) = (   0.4999996   0.0962249   0.8843902  )
        14           Se  tau(  14) = (   0.3333330   0.3848998   0.8843902  )
        15           Se  tau(  15) = (   0.1666665   0.6735749   0.8843902  )
        16           Se  tau(  16) = (   0.8333327   0.0962249   0.8843902  )
        17           Se  tau(  17) = (   0.6666661   0.3848998   0.8843902  )
        18           Se  tau(  18) = (   0.4999996   0.6735749   0.8843902  )
        19           Se  tau(  19) = (   0.0000000   0.1924498   0.5125698  )
        20           Se  tau(  20) = (  -0.1666666   0.4811247   0.5125698  )
        21           Se  tau(  21) = (  -0.3333331   0.7697998   0.5125698  )
        22           Se  tau(  22) = (   0.3333331   0.1924498   0.5125698  )
        23           Se  tau(  23) = (   0.1666666   0.4811247   0.5125698  )
        24           Se  tau(  24) = (   0.0000000   0.7697998   0.5125698  )
        25           Se  tau(  25) = (   0.6666664   0.1924498   0.5125698  )
        26           Se  tau(  26) = (   0.4999998   0.4811247   0.5125698  )
        27           Se  tau(  27) = (   0.3333331   0.7697998   0.5125698  )
        28           Se  tau(  28) = (   0.1666665   0.0962249   1.2110497  )
        29           Se  tau(  29) = (  -0.0000002   0.3848998   1.2110497  )
        30           Se  tau(  30) = (  -0.1666668   0.6735749   1.2110497  )
        31           Se  tau(  31) = (   0.4999996   0.0962249   1.2110497  )
        32           Se  tau(  32) = (   0.3333330   0.3848998   1.2110497  )
        33           Se  tau(  33) = (   0.1666665   0.6735749   1.2110497  )
        34           Se  tau(  34) = (   0.8333327   0.0962249   1.2110497  )
        35           Se  tau(  35) = (   0.6666661   0.3848998   1.2110497  )
        36           Se  tau(  36) = (   0.4999996   0.6735749   1.2110497  )
        37           Se  tau(  37) = (   0.0000000   0.1924498   0.1859102  )
        38           Se  tau(  38) = (  -0.1666666   0.4811247   0.1859102  )
        39           Se  tau(  39) = (  -0.3333331   0.7697998   0.1859102  )
        40           Se  tau(  40) = (   0.3333331   0.1924498   0.1859102  )
        41           Se  tau(  41) = (   0.1666666   0.4811247   0.1859102  )
        42           Se  tau(  42) = (   0.0000000   0.7697998   0.1859102  )
        43           Se  tau(  43) = (   0.6666664   0.1924498   0.1859102  )
        44           Se  tau(  44) = (   0.4999998   0.4811247   0.1859102  )
        45           Se  tau(  45) = (   0.3333331   0.7697998   0.1859102  )
        46           W   tau(  46) = (   0.1666665   0.0962249   0.3492400  )
        47           W   tau(  47) = (  -0.0000002   0.3848998   0.3492400  )
        48           W   tau(  48) = (  -0.1666668   0.6735749   0.3492400  )
        49           W   tau(  49) = (   0.4999996   0.0962249   0.3492400  )
        50           W   tau(  50) = (   0.3333330   0.3848998   0.3492400  )
        51           W   tau(  51) = (   0.1666665   0.6735749   0.3492400  )
        52           W   tau(  52) = (   0.8333327   0.0962249   0.3492400  )
        53           W   tau(  53) = (   0.6666661   0.3848998   0.3492400  )
        54           W   tau(  54) = (   0.4999996   0.6735749   0.3492400  )

     number of k points=     1  gaussian smearing, width (Ry)=  0.0100
                       cart. coord. in units 2pi/alat
        k(    1) = (   0.0000000   0.0000000   0.0000000), wk =   2.0000000

     Dense  grid:   528017 G-vectors     FFT dimensions: ( 120, 120, 180)

     Smooth grid:   156467 G-vectors     FFT dimensions: (  80,  80, 120)

     Estimated max dynamical RAM per process >     316.36Mb

     Estimated total allocated dynamical RAM >    1265.45Mb

     The potential is recalculated from file :
     ./out/Si_exc1.save/charge-density.dat

     Starting wfc are  342 randomized atomic wfcs

     Band Structure Calculation
     Davidson diagonalization with overlap
     WARNING:     2 eigenvalues not converged in regterg
     WARNING:     2 eigenvalues not converged in regterg
     WARNING:     2 eigenvalues not converged in regterg
     WARNING:     2 eigenvalues not converged in regterg
     WARNING:     2 eigenvalues not converged in regterg
     WARNING:     2 eigenvalues not converged in regterg
     c_bands:  2 eigenvalues not converged

     ethr =  2.14E-10,  avg # of iterations =120.0

     total cpu time spent up to now is      453.3 secs

     End of band structure calculation

          k = 0.0000 0.0000 0.0000 ( 19546 PWs)   bands (ev):

   -62.5415 -62.5301 -62.5294 -62.5287 -62.5279 -62.5274 -62.5272 -62.5216
   -62.5213 -27.0345 -26.9987 -26.9983 -26.9964 -26.9961 -26.9956 -26.9951
   -26.9946 -26.9943 -26.9808 -26.9801 -26.9794 -26.9785 -26.9781 -26.9779
   -26.9513 -26.9510 -26.9503 -26.9503 -26.7902 -26.7900 -26.7894 -26.7889
   -26.7885 -26.7882 -26.7274 -26.7274 -11.5104 -11.5104 -11.5104 -11.5104
   -11.5103 -11.5103 -11.4424 -11.4424 -11.4155 -11.4154 -11.4154 -11.4154
   -11.4154 -11.4154 -11.3939 -11.3939 -11.3842 -11.3842 -11.3200 -11.3200
   -11.2964 -11.2412 -11.2412 -11.2205 -11.2205 -11.2204 -11.2204 -11.2204
   -11.2204 -11.1826 -11.1825 -11.1825 -11.1825 -11.1825 -11.1825 -11.1803
   -11.1803 -11.1479 -11.1478 -11.1478 -11.1478 -11.1477 -11.1477 -11.1087
   -11.1087  -6.3277  -4.6052  -4.3594  -4.3594  -4.3594  -4.3594  -4.3593
    -4.3593  -3.7965  -2.9523  -2.9522  -2.9519  -2.9516  -2.9513  -2.9511
    -2.8157  -2.3789  -2.3789  -2.1974  -2.1973  -2.1971  -2.1967  -2.1966
    -2.1963  -1.9479  -1.9479  -1.9479  -1.9478  -1.9478  -1.9478  -1.8127
    -1.8127  -1.7151  -1.7151  -0.5125  -0.5125   2.0121   2.0121   3.1963
     3.2224   3.2224   3.2224   3.2224   3.2224   3.2224   3.9173   3.9173
     4.3342   4.8234   4.8235   4.8235   4.8239   4.8240   4.8240   4.8391
     4.8391   5.1719   5.1720   5.3167   5.3167   5.4139   5.4140   5.4140
     5.4140   5.4141   5.4141   6.1327   6.1328   6.1568   6.1570   6.1570
     6.1572   6.1573   6.1574   6.3088   6.3088   6.3088   6.3089   6.3089
     6.3089   6.3205   6.3206   6.3208   6.3210   6.3212   6.3214   6.6846
     6.6846   6.9821   6.9821   7.2286   7.2286   7.3888   7.5050   7.5051
     7.9200   7.9203   7.9205   7.9209   7.9210   7.9212   8.1902   8.1902
     8.7027   8.7027   8.7827   8.7827   8.7827   8.7827   8.7827   8.7828
     8.8796   8.8796   8.8798   8.8799   8.8800   8.8801   9.4203   9.5565
     9.5565   9.6053   9.6053   9.6054   9.6058   9.6059   9.6059   9.6708
     9.6709   9.6711   9.6715   9.6717   9.6717   9.8589   9.8589   9.8590
     9.8591   9.8592   9.8593  10.7419  10.7419  10.7893  11.0571  11.0571
    11.1271  11.1271  11.1271  11.1272  11.1272  11.1272  11.2185  11.2185
    12.2988  12.2988  12.7500  12.7502  12.8113  12.8113  12.8191  12.8191
    12.8739  12.8739  12.8739  12.8739  12.8739  12.8739  13.5447  13.5449
    13.5450  13.5453  13.5454  13.5455  13.7990  13.7992  13.7995  13.7998
    13.8000  13.8001  14.0589  14.1486  14.1486  14.1487  14.1487  14.1488
    14.1488  14.2601  14.2601  14.4347  14.4347  14.8950  14.8950  14.9610
    14.9611  14.9614  14.9616  14.9618  14.9619  15.4369  15.4369  16.1366
    16.1369

     Writing output data file Si_exc1.save

     init_run     :      8.16s CPU      8.70s WALL (       1 calls)
     electrons    :    442.40s CPU    443.98s WALL (       1 calls)

     Called by init_run:
     wfcinit      :      0.00s CPU      0.00s WALL (       1 calls)
     potinit      :      0.72s CPU      0.78s WALL (       1 calls)

     Called by electrons:
     c_bands      :    442.40s CPU    443.97s WALL (       1 calls)
     v_of_rho     :      0.58s CPU      0.63s WALL (       1 calls)
     newd         :      2.86s CPU      3.28s WALL (       1 calls)

     Called by c_bands:
     init_us_2    :      0.01s CPU      0.04s WALL (       1 calls)
     regterg      :    427.81s CPU    429.25s WALL (       6 calls)

     Called by sum_band:

     Called by *egterg:
     h_psi        :    130.39s CPU    131.02s WALL (     127 calls)
     s_psi        :     41.03s CPU     41.03s WALL (     127 calls)
     g_psi        :      0.10s CPU      0.10s WALL (     120 calls)
     rdiaghg      :     67.63s CPU     67.65s WALL (     121 calls)

     Called by h_psi:
     h_psi:pot    :    130.21s CPU    130.83s WALL (     127 calls)
     h_psi:calbec :     61.63s CPU     61.66s WALL (     127 calls)
     vloc_psi     :     27.79s CPU     28.37s WALL (     127 calls)
     add_vuspsi   :     40.80s CPU     40.81s WALL (     127 calls)

     General routines
     calbec       :     61.63s CPU     61.66s WALL (     127 calls)
     fft          :      0.33s CPU      0.35s WALL (      13 calls)
     ffts         :      0.01s CPU      0.01s WALL (       1 calls)
     fftw         :     22.28s CPU     22.75s WALL (    6252 calls)
     interpolate  :      0.04s CPU      0.04s WALL (       1 calls)
     davcio       :      0.00s CPU      0.03s WALL (       3 calls)

     Parallel routines
     fft_scatter  :      4.59s CPU      4.78s WALL (    6266 calls)

     PWSCF        :  7m31.22s CPU     7m33.38s WALL


   This run was terminated on:  14:49:56  31May2021            

=------------------------------------------------------------------------------=
   JOB DONE.
=------------------------------------------------------------------------------=
